% Model:              Before HO.mph
% Version:            COMSOL 6.0.0.405
% Date:               Apr 15 2024, 18:13
% Dimension:          2
% Nodes:              21757
% Expressions:        1
% Description:        压力
% Length unit:        m
% X                       Y                        p (Pa)
0.06790928600478602       0.06991510541143926      48347.6170315169
0                         0.10256410256410256      48027.43974358973
0                         0                        49033.24999999999
0.10380622837298459       0                        49033.24999999998
0.07664185413133918       0.15596274969275442      47503.77790072554
0                         0.20512820512820512      47021.62948717948
0.2076124567466886        0                        49033.24999999999
0.15909834751959218       0.09104867480113293      48140.36751326145
0.26584061765352707       0.08348294660153126      48214.56196171008
0.3114186851203926        0                        49033.24999999999
0.08138603186596623       0.2566597760144841       46516.27740754755
0                         0.3076923076923077       46015.819230769215
0.08440254842529996       0.3577160808506508       45525.25359572595
0                         0.4102564102564103       45010.00897435897
0.3653488075943384        0.08315925961728526      48217.73624667414
0.4152249134940966        0                        49033.24999999998
0.08451368154686938       0.4608237275660214       44514.11299206467
0                         0.5128205128205129       44004.19871794871
0.4672028106232305        0.08312701317026927      48218.052476293764
0.5190311418678006        0                        49033.24999999998
0.08399436399394163       0.5635777161207266       43506.44059020467
0                         0.6153846153846154       42998.38846153845
0.5706265630321038        0.08338555246712695      48215.51707189824
0.6228373702415047        0                        49033.24999999999
0.08366695850522296       0.6662416838177275       42499.65099138888
0                         0.717948717948718        41992.5782051282
0.6743590496895232        0.08379921681871327      48211.46041038476
0.7266435986152087        0                        49033.24999999999
0.08363128307247444       0.7690202966848744       41491.73710751527
0                         0.8205128205128205       40986.76794871794
0.7781918912606869        0.08393036590886689      48210.1742771598
0.8304498269889127        0                        49033.24999999999
0.08370322949083632       0.871696051880323        40484.83191282782
0                         0.923076923076923        39980.95769230769
0.0837538207248638        0.9743290761296771       39478.34576557289
0                         1.0256410256410255       38975.14743589743
0.08377345903907205       1.076918358110052        38472.28858344006
0                         1.1282051282051282       37969.33717948717
0.882108350885521         0.08402666184869034      48209.229936581534
0.9342560553626167        0                        49033.24999999999
0.08377707701346107       1.1794871779747402       37466.43206611401
0                         1.2307692307692308       36963.52692307692
0.9860207449493709        0.08408877787394181      48208.6207864625
1.0380622837363207        0                        49033.24999999999
0.08377707704264474       1.2820512790387324       36460.62182441481
0                         1.3333333333333335       35957.71666666666
0.0837770770997084        1.384615378668744        35454.811596778156
0                         1.4358974358974361       34951.9064102564
1.0898981340068195        0.08412434126344792      48208.27202874881
1.1418685121100247        0                        49033.24999999999
0.08377707721007431       1.4871794755482068       34449.00139611517
0                         1.5384615384615388       33946.09615384614
0.08377707742114078       1.58974356720405         33443.191246678405
0                         1.6410256410256414       32940.28589743589
1.193742698502085         0.08414183305212107      48208.100492899415
1.2456747404837287        0                        49033.25
0.08377707782011863       1.6923076490388735       32437.381193552923
0                         1.743589743589744        31934.475641025627
1.2975666093458775        0.08414930123966312      48208.02725499805
1.3494809688574327        0                        49033.25
0.08377707856526168       1.7948717125948486       31431.57131968172
0                         1.8461538461538467       30928.665384615375
0.0837770799394991        1.8974357424730264       30425.76177607689
0                         1.9487179487179493       29922.85512820512
1.4013800668289285        0.08415214033897646      48207.99941294477
1.4532871972311368        0                        49033.25
0.0837770824403536        1.9999997109236056       29419.95283487102
0                         2.051282051282052        28917.04487179486
0.08377708692555243       2.102563568440506        28414.144981552905
0                         2.1538461538461546       27911.234615384605
1.505188976099451         0.0841531245950159       48207.98976069029
1.5570934256048408        0                        49033.25
0.0837770948350003        2.2051272275603635       27408.339073845156
0                         2.2564102564102573       26905.424358974346
1.6089961219774878        0.08415344168406702      48207.98665110894
1.6608996539785448        0                        49033.25
0.08377710848623822       2.307690535194864        26402.536613031287
0                         2.35897435897436         25899.614102564094
0.08377713130132021       2.4102532257565032       25396.74020363498
0                         2.4615384615384626       24893.803846153827
1.7128026440357491        0.08415353797029912      48207.98570686357
1.7647058823522488        0                        49033.25
0.08377716699308344       2.5128148423238303       24390.954326525007
0                         2.5640991306469294       23888.027260441286
0.08377721015394687       2.6153746046618607       23385.18663319276
0                         2.6666571341356575       22882.27681552855
1.816608961266965         0.08415356582332013      48207.985433718735
1.8685121107259528        0                        49033.25
0.08377726032047936       2.717931186353185        22379.45013134953
0                         2.769210756599836        21876.569333790216
1.9204152152687828        0.08415357356066205      48207.985357841324
1.9723183390996568        0                        49033.24999999999
0                         2.866452275724583        20922.955790265518
0.08377728659785819       2.8204823176601623       21373.76707951797
0.08377718623765727       2.917722002330912        20420.17152584156
0                         2.9688431251125373       19918.844567115135
2.0242214507367065        0.08415357563743042      48207.98533747519
2.076124567473361         0                        49033.24999999999
2.1280276810056313        0.084153576178638        48207.98533216776
2.179930795847065         0                        49033.24999999999
0.08039867454603845       3.0122798941141826       19492.875376385146
0                         3.086867234022261        18761.42343947559
0.08398790490947818       3.1302276583755315       18336.202933991593
0                         3.221693602961735        17439.2284285153
2.2318339098701903        0.0841535763160924       48207.985330819785
2.283737024220769         0                        49033.24999999999
0.08226000134345969       3.279630438996374        16871.06215541621
0                         3.3692398554043304       15992.293971999121
2.335640138367607         0.08415357635022297      48207.98533048509
2.387543252594473         0                        49033.25
0.0773449548292849        3.438890049469172        15309.258896373141
0                         3.523056250933562        14483.870416782383
0.07794668058447121       3.5859390456387548       13867.200858086706
0                         3.6725311394046813       13018.022501757083
2.4394463667717483        0.08415357635851121      48207.98533040379
2.491349480968177         0                        49033.24999999999
0.07280247352404033       3.7209830121878986       12542.871943527543
0                         3.7823783725761864       11940.78913257574
0.07711983678795842       3.8060256695231365       11708.88836797093
0                         3.851332754998292        11264.577638195995
2.543252595152782         0.08415357636050375      48207.985330384254
2.595155709341881         0                        49033.24999999999
0.08696203517503769       3.8579178327155517       11200.000085800033
0                         3.892666482652776        10859.232237893151
2.647058823528218         0.08415357636095627      48207.98533037982
2.698961937715585         0                        49033.24999999999
0                         3.9356479569264278       10437.727963207444
0                         3.9160693956728174       10629.728060925163
0.10016965275616066       3.9270604334761514       10521.942800051098
0.10353714779085903       3.9037145569905967       10750.887639688162
2.7508650519023234        0.084153576361073        48207.98533037867
2.802768166089289         0                        49033.24999999999
2.8546712802761194        0.08415357636110485      48207.98533037837
2.906574394462993         0                        49033.24999999999
2.958477508649843         0.0841535763611161       48207.98533037825
3.010380622836697         0                        49033.24999999999
3.062283737023553         0.08415357636110356      48207.985330378375
3.114186851210401         0                        49033.24999999999
3.1660899653972576        0.08415357636111064      48207.98533037831
3.217993079584105         0                        49033.24999999999
3.269896193770961         0.08415357636111706      48207.98533037824
3.321799307957809         0                        49033.24999999999
3.3737024221446643        0.08415357636112257      48207.98533037819
3.425605536331513         0                        49033.24999999999
3.4775086505183697        0.08415357636111052      48207.98533037831
3.529411764705217         0                        49033.24999999999
3.5813148788920732        0.08415357636111688      48207.98533037825
3.633217993078921         0                        49033.24999999999
3.6851211072657772        0.0841535763611224       48207.98533037819
3.737024221452625         0                        49033.24999999999
3.7889273356394804        0.08415357636112704      48207.98533037815
3.840830449826329         0                        49033.24999999999
3.8927335640131844        0.0841535763611307       48207.98533037811
3.944636678200033         0                        49033.24999999999
3.9965397923868884        0.08415357636113383      48207.985330378084
4.048442906573737         0                        49033.25
4.1003460207605915        0.08415357636113656      48207.985330378055
4.152249134947441         0                        49033.25
4.204152249134295         0.08415357636113918      48207.98533037803
4.2560553633211455        0                        49033.24999999999
4.3079584775079995        0.08415357636114175      48207.985330378004
4.359861591694849         0                        49033.24999999999
4.411764705881703         0.08415357636114427      48207.98533037799
4.463667820068553         0                        49033.24999999999
4.515570934255407         0.08415357636114681      48207.985330377946
4.567474048442257         0                        49033.24999999999
4.619377162629111         0.08415357636113903      48207.98533037803
4.671280276815962         0                        49033.24999999999
4.723183391002815         0.08415357636114267      48207.985330378
4.775086505189665         0                        49033.24999999999
4.826989619376519         0.08415357636114591      48207.98533037797
4.878892733563369         0                        49033.25
4.930795847750224         0.08415357636114901      48207.98533037793
4.982698961937073         0                        49033.25
5.034602076123927         0.08415357636115169      48207.98533037791
5.086505190310778         0                        49033.25
5.138408304497631         0.08415357636115399      48207.98533037789
5.190311418684481         0                        49033.24999999999
5.242214532871335         0.0841535763611559       48207.98533037787
5.294117647058185         0                        49033.24999999999
5.346020761245038         0.0841535763611576       48207.98533037785
5.397923875431889         0                        49033.24999999999
5.4498269896187415        0.08415357636115912      48207.98533037783
5.501730103805594         0                        49033.24999999999
5.553633217992446         0.08415357636116054      48207.98533037782
5.605536332179297         0                        49033.24999999999
5.6574394463661495        0.08415357636116189      48207.985330377815
5.709342560553001         0                        49033.25
5.761245674739854         0.08415357636116322      48207.98533037779
5.813148788926705         0                        49033.25
5.865051903113558         0.08415357636116456      48207.98533037777
5.91695501730041          0                        49033.25
5.968858131487263         0.08415357636116066      48207.98533037782
6.020761245674113         0                        49033.25
6.072664359860966         0.08415357636116257      48207.9853303778
6.124567474047817         0                        49033.25
6.17647058823467          0.0841535763611643       48207.985330377785
6.228373702421521         0                        49033.25
6.2802768166083744        0.08415357636116572      48207.98533037777
6.332179930795226         0                        49033.25
6.384083044982078         0.08415357636116694      48207.98533037776
6.435986159168929         0                        49033.25
6.487889273355781         0.0841535763611679       48207.985330377756
6.539792387542633         0                        49033.25
6.591695501729485         0.08415357636116873      48207.98533037774
6.643598615916337         0                        49033.25000000001
6.69550173010319          0.0841535763611695       48207.98533037774
6.747404844290042         0                        49033.25
6.799307958476894         0.08415357636117024      48207.98533037773
6.851211072663745         0                        49033.25
6.903114186850597         0.08415357636117095      48207.98533037771
6.955017301037449         0                        49033.25
7.006920415224301         0.0841535763611717       48207.98533037771
7.058823529411153         0                        49033.24999999999
7.110726643598005         0.08415357636117245      48207.985330377705
7.162629757784858         0                        49033.24999999999
7.214532871971708         0.08415357636117318      48207.9853303777
7.2664359861585615        0                        49033.25
7.318339100345413         0.08415357636117114      48207.98533037771
7.370242214532265         0                        49033.25
7.422145328719117         0.08415357636117218      48207.985330377705
7.4740484429059695        0                        49033.25
7.525951557092821         0.08415357636117302      48207.9853303777
7.577854671279674         0                        49033.24999999999
7.629757785466525         0.08415357636117363      48207.9853303777
7.6816608996533775        0                        49033.24999999999
7.73356401384023          0.08415357636117447      48207.98533037768
7.785467128027081         0                        49033.25
7.837370242213933         0.08415357636117517      48207.985330377676
7.8892733564007855        0                        49033.25
7.941176470587638         0.08415357636117575      48207.985330377676
7.99307958477449          0                        49033.25
8.044982698961343         0.08415357636117622      48207.985330377676
8.096885813148194         0                        49033.25
8.148788927335048         0.08415357636117665      48207.98533037767
8.200692041521897         0                        49033.25
8.252595155708752         0.084153576361177        48207.98533037767
8.304498269895602         0                        49033.25
8.356401384082455         0.08415357636117732      48207.985330377654
8.408304498269306         0                        49033.25
8.46020761245616          0.08415357636117765      48207.985330377654
8.512110726643009         0                        49033.25
8.564013840829864         0.08415357636117672      48207.98533037767
8.615916955016713         0                        49033.25
8.667820069203566         0.08415357636117725      48207.985330377654
8.719723183390418         0                        49033.25
8.77162629757727          0.08415357636117765      48207.985330377654
8.823529411764122         0                        49033.25
8.875432525950975         0.08415357636117796      48207.985330377654
8.927335640137827         0                        49033.25
8.979238754324678         0.08415357636117815      48207.98533037765
9.03114186851153          0                        49033.24999999999
9.083044982698382         0.08415357636117837      48207.98533037765
9.134948096885234         0                        49033.24999999999
9.186851211072087         0.08415357636117851      48207.98533037765
9.238754325258938         0                        49033.24999999999
9.29065743944579          0.08415357636117875      48207.98533037765
9.34256055363264          0                        49033.25
9.394463667819494         0.084153576361179        48207.98533037764
9.446366782006345         0                        49033.25
9.498269896193198         0.08415357636117923      48207.98533037764
9.55017301038005          0                        49033.25
9.602076124566901         0.08415357636117944      48207.98533037764
9.653979238753754         0                        49033.25
9.705882352940606         0.08415357636117961      48207.98533037764
9.757785467127459         0                        49033.25
9.80968858131431          0.08415357636117841      48207.98533037765
9.861591695501161         0                        49033.25
9.913494809688013         0.08415357636117898      48207.98533037764
9.965397923874866         0                        49033.25
10.017301038061717        0.08415357636117932      48207.98533037764
10.06920415224857         0                        49033.25
10.121107266435422        0.08415357636117958      48207.98533037764
10.173010380622273        0                        49033.24999999999
10.224913494809126        0.08415357636117987      48207.98533037764
10.276816608995977        0                        49033.24999999999
10.32871972318283         0.08415357636118015      48207.98533037764
10.380622837369682        0                        49033.24999999999
10.432525951556535        0.08415357636118032      48207.985330377625
10.484429065743386        0                        49033.24999999999
10.536332179930238        0.08415357636118041      48207.985330377625
10.58823529411709         0                        49033.24999999999
10.640138408303942        0.08415357636118047      48207.985330377625
10.692041522490793        0                        49033.24999999999
10.743944636677647        0.08415357636118055      48207.985330377625
10.795847750864498        0                        49033.24999999999
10.847750865051351        0.08415357636118062      48207.985330377625
10.899653979238202        0                        49033.25
10.951557093425054        0.08415357636118072      48207.985330377625
11.003460207611905        0                        49033.25
11.055363321798758        0.08415357636118091      48207.98533037762
11.10726643598561         0                        49033.24999999999
11.159169550172463        0.0841535763611811       48207.98533037762
11.211072664359314        0                        49033.25
11.262975778546165        0.0841535763611808       48207.98533037762
11.314878892733018        0                        49033.25
11.36678200691987         0.08415357636118086      48207.985330377625
11.418685121106723        0                        49033.25
11.470588235293574        0.08415357636118091      48207.98533037762
11.522491349480426        0                        49033.25
11.574394463667277        0.08415357636118094      48207.985330377625
11.62629757785413         0                        49033.25
11.678200692040981        0.08415357636118102      48207.985330377625
11.730103806227834        0                        49033.25
11.782006920414686        0.08415357636118108      48207.985330377625
11.833910034601537        0                        49033.25
11.885813148788388        0.08415357636118125      48207.98533037762
11.937716262975242        0                        49033.25
11.989619377162093        0.08415357636118141      48207.98533037762
12.041522491348946        0                        49033.25
12.093425605535797        0.08415357636118152      48207.98533037761
12.14532871972265         0                        49033.25
12.197231833909502        0.08415357636118144      48207.98533037762
12.249134948096355        0                        49033.24999999999
12.301038062283206        0.08415357636118147      48207.98533037762
12.352941176470058        0                        49033.25
12.40484429065691         0.08415357636118151      48207.98533037762
12.456747404843762        0                        49033.24999999999
12.508650519030615        0.08415357636118134      48207.98533037762
12.560553633217467        0                        49033.25
12.612456747404318        0.08415357636118138      48207.98533037762
12.66435986159117         0                        49033.25
12.716262975778022        0.08415357636118154      48207.98533037762
12.768166089964874        0                        49033.24999999999
12.820069204151727        0.08415357636118165      48207.98533037762
12.871972318338578        0                        49033.24999999999
12.923875432525431        0.08415357636118169      48207.98533037761
12.975778546712283        0                        49033.24999999999
13.027681660899134        0.08415357636118158      48207.98533037761
13.079584775085987        0                        49033.24999999999
13.131487889272838        0.08415357636118155      48207.98533037761
13.18339100345969         0                        49033.24999999999
13.235294117646541        0.08415357636118165      48207.98533037761
13.287197231833394        0                        49033.24999999999
13.339100346020246        0.08415357636118158      48207.98533037761
13.391003460207099        0                        49033.24999999999
13.44290657439395         0.0841535763611811       48207.98533037762
13.494809688580801        0                        49033.24999999999
13.546712802767654        0.0841535763611817       48207.98533037761
13.598615916954506        0                        49033.24999999999
13.650519031141357        0.084153576361182        48207.98533037761
13.70242214532821         0                        49033.25
13.754325259515062        0.08415357636118194      48207.98533037761
13.806228373701915        0                        49033.25
13.858131487888766        0.08415357636118188      48207.98533037761
13.91003460207562         0                        49033.25
13.96193771626247         0.08415357636118183      48207.98533037761
14.013840830449322        0                        49033.25
14.065743944636175        0.08415357636118186      48207.98533037761
14.117647058823026        0                        49033.25
14.169550173009878        0.08415357636118193      48207.98533037761
14.22145328719673         0                        49033.25
14.273356401383582        0.08415357636118205      48207.98533037761
14.325259515570433        0                        49033.25
14.377162629757287        0.0841535763611821       48207.985330377596
14.429065743944138        0                        49033.24999999999
14.480968858130991        0.08415357636118215      48207.98533037761
14.532871972317842        0                        49033.25
14.584775086504694        0.08415357636118215      48207.98533037761
14.636678200691547        0                        49033.25
14.688581314878398        0.08415357636118215      48207.98533037761
14.740484429065251        0                        49033.24999999999
14.792387543252103        0.08415357636118216      48207.98533037761
14.844290657438954        0                        49033.25
14.896193771625805        0.08415357636118222      48207.98533037761
14.948096885812658        0                        49033.25
14.99999999999951         0.08415357636118234      48207.98533037761
15.051903114186363        0                        49033.24999999999
15.103806228373216        0.08415357636118266      48207.985330377596
15.155709342560069        0                        49033.25
15.207612456746922        0.0841535763611828       48207.985330377596
15.259515570933777        0                        49033.25
15.311418685120628        0.08415357636118256      48207.98533037761
15.363321799307482        0                        49033.25
15.415224913494333        0.08415357636118255      48207.985330377596
15.467128027681184        0                        49033.25
15.51903114186804         0.08415357636118265      48207.985330377596
15.570934256054892        0                        49033.25
15.622837370241745        0.08415357636118265      48207.985330377596
15.6747404844286          0                        49033.25
15.726643598615452        0.08415357636118248      48207.985330377596
15.778546712802303        0                        49033.24999999999
15.830449826989156        0.08415357636118254      48207.985330377596
15.882352941176007        0                        49033.25
15.934256055362862        0.08415357636118274      48207.985330377596
15.986159169549715        0                        49033.25
16.03806228373657         0.08415357636118279      48207.985330377596
16.08996539792342         0                        49033.25
16.141868512110275        0.08415357636118272      48207.985330377596
16.193771626297128        0                        49033.25
16.245674740483977        0.08415357636118266      48207.98533037761
16.29757785467083         0                        49033.24999999999
16.349480968857684        0.08415357636118269      48207.98533037761
16.401384083044537        0                        49033.25
16.45328719723139         0.08415357636118281      48207.985330377596
16.505190311418247        0                        49033.25
16.557093425605096        0.08415357636118237      48207.98533037761
16.60899653979195         0                        49033.24999999999
16.660899653978802        0.08415357636118248      48207.98533037761
16.712802768165652        0                        49033.24999999999
16.764705882352512        0.0841535763611828       48207.985330377596
16.81660899653936         0                        49033.25
16.868512110726215        0.08415357636118263      48207.985330377596
16.920415224913068        0                        49033.25
16.97231833909992         0.08415357636118254      48207.985330377596
17.02422145328677         0                        49033.24999999999
17.076124567473627        0.08415357636118263      48207.985330377596
17.128027681660477        0                        49033.24999999999
17.179930795847334        0.08415357636118272      48207.98533037761
17.231833910034183        0                        49033.25
17.283737024221036        0.08415357636118266      48207.985330377596
17.33564013840789         0                        49033.25
17.387543252594742        0.08415357636118255      48207.985330377596
17.439446366781596        0                        49033.25
17.491349480968445        0.08415357636118245      48207.98533037761
17.543252595155298        0                        49033.24999999999
17.59515570934215         0.08415357636118277      48207.985330377596
17.647058823529004        0                        49033.24999999999
17.698961937715858        0.08415357636118265      48207.985330377596
17.750865051902714        0                        49033.25
17.802768166089564        0.08415357636118243      48207.985330377596
17.854671280276417        0                        49033.25
17.906574394463266        0.08415357636118244      48207.985330377596
17.95847750865012         0                        49033.25
18.010380622836973        0.08415357636118263      48207.985330377596
18.06228373702383         0                        49033.24999999999
18.114186851210683        0.08415357636118272      48207.985330377596
18.166089965397536        0                        49033.24999999999
18.21799307958439         0.08415357636118263      48207.985330377596
18.26989619377124         0                        49033.24999999999
18.321799307958095        0.08415357636118269      48207.985330377596
18.373702422144945        0                        49033.24999999999
18.425605536331798        0.0841535763611828       48207.985330377596
18.47750865051865         0                        49033.25
18.529411764705504        0.0841535763611828       48207.985330377596